/*--------------------------------*- C++ -*----------------------------------*\
| =========                 |                                                 |
| \\      /  F ield         | OpenFOAM: The Open Source CFD Toolbox           |
|  \\    /   O peration     | Version:  2212                                  |
|   \\  /    A nd           | Website:  www.openfoam.com                      |
|    \\/     M anipulation  |                                                 |
\*---------------------------------------------------------------------------*/
FoamFile
{
    version     2.0;
    format      ascii;
    arch        "LSB;label=32;scalar=64";
    class       volScalarField;
    location    "0.2";
    object      S;
}
// * * * * * * * * * * * * * * * * * * * * * * * * * * * * * * * * * * * * * //

dimensions      [0 0 0 1 0 0 0];

internalField   nonuniform List<scalar> 
400
(
499.977
499.931
499.886
499.844
499.807
499.776
499.751
499.732
499.721
499.717
499.72
499.73
499.746
499.767
499.794
499.825
499.86
499.897
499.937
499.979
499.93
499.792
499.659
499.536
499.426
499.333
499.258
499.204
499.171
499.159
499.168
499.198
499.245
499.31
499.389
499.481
499.584
499.696
499.814
499.937
499.885
499.657
499.438
499.235
499.054
498.901
498.779
498.691
498.638
498.621
498.638
498.687
498.766
498.873
499.003
499.154
499.323
499.505
499.698
499.898
499.841
499.527
499.226
498.947
498.7
498.492
498.326
498.208
498.138
498.117
498.143
498.212
498.322
498.469
498.648
498.854
499.083
499.331
499.592
499.862
499.8
499.406
499.028
498.68
498.372
498.112
497.909
497.765
497.682
497.659
497.695
497.786
497.926
498.11
498.333
498.589
498.873
499.178
499.499
499.831
499.763
499.296
498.849
498.438
498.075
497.772
497.536
497.371
497.279
497.259
497.307
497.419
497.587
497.806
498.069
498.368
498.697
499.051
499.422
499.805
499.73
499.199
498.691
498.226
497.817
497.477
497.215
497.036
496.94
496.925
496.987
497.12
497.315
497.565
497.861
498.196
498.562
498.953
499.363
499.785
499.702
499.117
498.559
498.049
497.603
497.235
496.954
496.766
496.671
496.665
496.743
496.896
497.116
497.391
497.715
498.076
498.469
498.887
499.323
499.772
499.68
499.053
498.455
497.91
497.436
497.049
496.758
496.568
496.478
496.484
496.578
496.751
496.991
497.288
497.631
498.011
498.421
498.853
499.303
499.765
499.665
499.007
498.382
497.814
497.323
496.926
496.633
496.446
496.366
496.385
496.495
496.685
496.943
497.255
497.611
498.001
498.416
498.851
499.303
499.765
499.656
498.982
498.342
497.763
497.267
496.87
496.582
496.405
496.336
496.37
496.494
496.698
496.967
497.289
497.65
498.041
498.453
498.88
499.321
499.771
499.655
498.978
498.338
497.762
497.272
496.886
496.61
496.447
496.392
496.438
496.573
496.785
497.06
497.384
497.743
498.127
498.526
498.936
499.356
499.783
499.662
498.998
498.372
497.813
497.343
496.977
496.721
496.574
496.533
496.589
496.73
496.944
497.217
497.534
497.884
498.252
498.631
499.016
499.405
499.8
499.677
499.043
498.449
497.922
497.484
497.148
496.917
496.789
496.76
496.82
496.96
497.168
497.43
497.733
498.064
498.41
498.762
499.114
499.467
499.821
499.701
499.115
498.569
498.091
497.699
497.401
497.2
497.092
497.072
497.131
497.262
497.454
497.695
497.974
498.278
498.594
498.913
499.227
499.537
499.845
499.734
499.216
498.737
498.324
497.99
497.739
497.571
497.482
497.467
497.519
497.633
497.8
498.01
498.255
498.522
498.8
499.079
499.35
499.613
499.871
499.778
499.346
498.954
498.621
498.355
498.157
498.024
497.952
497.939
497.98
498.07
498.203
498.374
498.574
498.794
499.025
499.257
499.481
499.694
499.898
499.831
499.507
499.218
498.977
498.786
498.642
498.545
498.491
498.478
498.505
498.567
498.663
498.786
498.933
499.098
499.271
499.447
499.617
499.777
499.926
499.895
499.695
499.521
499.377
499.262
499.174
499.113
499.078
499.068
499.081
499.116
499.172
499.246
499.335
499.435
499.543
499.654
499.761
499.863
499.955
499.965
499.898
499.841
499.792
499.754
499.724
499.702
499.69
499.685
499.689
499.7
499.718
499.742
499.772
499.806
499.842
499.88
499.917
499.952
499.984
)
;

boundaryField
{
    movingWall
    {
        type            fixedValue;
        value           uniform 500;
    }
    fixedWalls
    {
        type            fixedValue;
        value           uniform 500;
    }
    frontAndBack
    {
        type            empty;
    }
}


// ************************************************************************* //
