/*--------------------------------*- C++ -*----------------------------------*\
| =========                 |                                                 |
| \\      /  F ield         | OpenFOAM: The Open Source CFD Toolbox           |
|  \\    /   O peration     | Version:  2212                                  |
|   \\  /    A nd           | Website:  www.openfoam.com                      |
|    \\/     M anipulation  |                                                 |
\*---------------------------------------------------------------------------*/
FoamFile
{
    version     2.0;
    format      ascii;
    arch        "LSB;label=32;scalar=64";
    class       volScalarField;
    location    "0.3";
    object      S;
}
// * * * * * * * * * * * * * * * * * * * * * * * * * * * * * * * * * * * * * //

dimensions      [0 0 0 1 0 0 0];

internalField   nonuniform List<scalar> 
400
(
499.997
499.99
499.983
499.977
499.972
499.967
499.964
499.961
499.959
499.959
499.959
499.96
499.963
499.966
499.97
499.974
499.979
499.985
499.991
499.997
499.99
499.97
499.95
499.932
499.916
499.902
499.891
499.884
499.879
499.877
499.878
499.883
499.89
499.899
499.911
499.924
499.939
499.956
499.973
499.991
499.983
499.95
499.918
499.888
499.862
499.839
499.821
499.809
499.801
499.798
499.801
499.808
499.82
499.835
499.854
499.876
499.901
499.928
499.956
499.985
499.977
499.931
499.887
499.846
499.81
499.779
499.755
499.738
499.728
499.725
499.728
499.739
499.755
499.776
499.802
499.833
499.866
499.902
499.94
499.98
499.971
499.913
499.858
499.807
499.762
499.724
499.694
499.673
499.661
499.658
499.663
499.676
499.697
499.724
499.756
499.794
499.835
499.88
499.927
499.975
499.965
499.897
499.832
499.771
499.718
499.674
499.64
499.615
499.602
499.599
499.606
499.623
499.647
499.679
499.718
499.762
499.81
499.861
499.916
499.972
499.96
499.883
499.808
499.74
499.681
499.631
499.593
499.566
499.552
499.55
499.559
499.579
499.608
499.644
499.687
499.736
499.79
499.847
499.907
499.969
499.956
499.871
499.789
499.714
499.649
499.595
499.554
499.527
499.513
499.512
499.524
499.546
499.578
499.619
499.666
499.719
499.776
499.837
499.901
499.967
499.953
499.861
499.774
499.694
499.625
499.568
499.526
499.498
499.485
499.486
499.5
499.525
499.56
499.604
499.654
499.709
499.769
499.832
499.898
499.966
499.951
499.855
499.763
499.68
499.608
499.55
499.507
499.48
499.468
499.471
499.487
499.515
499.553
499.599
499.651
499.708
499.768
499.832
499.898
499.966
499.95
499.851
499.757
499.672
499.6
499.542
499.5
499.474
499.464
499.469
499.487
499.517
499.556
499.603
499.656
499.714
499.774
499.836
499.901
499.967
499.949
499.85
499.757
499.672
499.601
499.544
499.504
499.48
499.472
499.479
499.499
499.53
499.57
499.617
499.67
499.726
499.784
499.844
499.906
499.968
499.95
499.853
499.762
499.68
499.611
499.557
499.52
499.499
499.493
499.501
499.521
499.553
499.593
499.639
499.69
499.744
499.8
499.856
499.913
499.971
499.953
499.86
499.773
499.696
499.632
499.582
499.549
499.53
499.526
499.535
499.555
499.586
499.624
499.668
499.717
499.767
499.819
499.87
499.922
499.974
499.956
499.87
499.79
499.72
499.663
499.619
499.59
499.574
499.571
499.58
499.599
499.627
499.663
499.704
499.748
499.794
499.841
499.887
499.932
499.977
499.961
499.885
499.815
499.754
499.706
499.669
499.644
499.631
499.629
499.637
499.653
499.678
499.709
499.745
499.784
499.824
499.865
499.905
499.943
499.981
499.967
499.904
499.847
499.798
499.759
499.73
499.711
499.7
499.698
499.704
499.717
499.737
499.762
499.791
499.824
499.857
499.891
499.924
499.955
499.985
499.975
499.928
499.885
499.85
499.822
499.801
499.787
499.779
499.777
499.781
499.79
499.804
499.822
499.844
499.868
499.893
499.919
499.944
499.967
499.989
499.985
499.955
499.93
499.909
499.892
499.879
499.87
499.865
499.863
499.865
499.871
499.879
499.89
499.903
499.917
499.933
499.949
499.965
499.98
499.993
499.995
499.985
499.977
499.97
499.964
499.96
499.956
499.955
499.954
499.954
499.956
499.959
499.962
499.967
499.972
499.977
499.982
499.988
499.993
499.998
)
;

boundaryField
{
    movingWall
    {
        type            fixedValue;
        value           uniform 500;
    }
    fixedWalls
    {
        type            fixedValue;
        value           uniform 500;
    }
    frontAndBack
    {
        type            empty;
    }
}


// ************************************************************************* //
