/*--------------------------------*- C++ -*----------------------------------*\
| =========                 |                                                 |
| \\      /  F ield         | OpenFOAM: The Open Source CFD Toolbox           |
|  \\    /   O peration     | Version:  2212                                  |
|   \\  /    A nd           | Website:  www.openfoam.com                      |
|    \\/     M anipulation  |                                                 |
\*---------------------------------------------------------------------------*/
FoamFile
{
    version     2.0;
    format      ascii;
    arch        "LSB;label=32;scalar=64";
    class       volScalarField;
    location    "0.4";
    object      S;
}
// * * * * * * * * * * * * * * * * * * * * * * * * * * * * * * * * * * * * * //

dimensions      [0 0 0 1 0 0 0];

internalField   nonuniform List<scalar> 
400
(
500
499.999
499.998
499.997
499.996
499.995
499.995
499.994
499.994
499.994
499.994
499.994
499.995
499.995
499.996
499.996
499.997
499.998
499.999
500
499.999
499.996
499.993
499.99
499.988
499.986
499.984
499.983
499.982
499.982
499.982
499.983
499.984
499.985
499.987
499.989
499.991
499.994
499.996
499.999
499.998
499.993
499.988
499.984
499.98
499.976
499.974
499.972
499.971
499.971
499.971
499.972
499.974
499.976
499.979
499.982
499.986
499.989
499.994
499.998
499.997
499.99
499.983
499.977
499.972
499.968
499.964
499.962
499.96
499.96
499.96
499.962
499.964
499.967
499.971
499.976
499.98
499.986
499.991
499.997
499.996
499.987
499.979
499.972
499.965
499.96
499.955
499.952
499.95
499.95
499.951
499.953
499.956
499.96
499.964
499.97
499.976
499.982
499.989
499.996
499.995
499.985
499.975
499.967
499.959
499.952
499.947
499.944
499.942
499.941
499.942
499.945
499.948
499.953
499.959
499.965
499.972
499.98
499.988
499.996
499.994
499.983
499.972
499.962
499.953
499.946
499.94
499.937
499.934
499.934
499.936
499.938
499.943
499.948
499.954
499.961
499.969
499.978
499.986
499.995
499.994
499.981
499.969
499.958
499.949
499.941
499.935
499.931
499.929
499.929
499.93
499.934
499.938
499.944
499.951
499.959
499.967
499.976
499.986
499.995
499.993
499.98
499.967
499.955
499.945
499.937
499.931
499.927
499.925
499.925
499.927
499.93
499.936
499.942
499.949
499.957
499.966
499.975
499.985
499.995
499.993
499.979
499.965
499.953
499.943
499.934
499.928
499.924
499.922
499.923
499.925
499.929
499.935
499.941
499.949
499.957
499.966
499.975
499.985
499.995
499.993
499.978
499.964
499.952
499.941
499.933
499.927
499.923
499.922
499.922
499.925
499.929
499.935
499.942
499.95
499.958
499.967
499.976
499.985
499.995
499.993
499.978
499.964
499.952
499.942
499.933
499.927
499.924
499.923
499.924
499.927
499.931
499.937
499.944
499.952
499.96
499.968
499.977
499.986
499.995
499.993
499.979
499.965
499.953
499.943
499.935
499.93
499.927
499.926
499.927
499.93
499.935
499.94
499.947
499.955
499.963
499.971
499.979
499.987
499.996
499.993
499.979
499.967
499.955
499.946
499.939
499.934
499.931
499.931
499.932
499.935
499.939
499.945
499.951
499.959
499.966
499.973
499.981
499.989
499.996
499.994
499.981
499.969
499.959
499.951
499.944
499.94
499.938
499.937
499.939
499.941
499.945
499.951
499.957
499.963
499.97
499.977
499.983
499.99
499.997
499.994
499.983
499.973
499.964
499.957
499.952
499.948
499.946
499.946
499.947
499.949
499.953
499.957
499.963
499.968
499.974
499.98
499.986
499.992
499.997
499.995
499.986
499.978
499.97
499.965
499.96
499.958
499.956
499.956
499.957
499.959
499.962
499.965
499.969
499.974
499.979
499.984
499.989
499.993
499.998
499.996
499.989
499.983
499.978
499.974
499.971
499.969
499.968
499.967
499.968
499.969
499.971
499.974
499.977
499.981
499.984
499.988
499.992
499.995
499.998
499.998
499.993
499.99
499.987
499.984
499.982
499.981
499.98
499.98
499.98
499.981
499.982
499.984
499.986
499.988
499.99
499.993
499.995
499.997
499.999
499.999
499.998
499.997
499.996
499.995
499.994
499.994
499.993
499.993
499.993
499.994
499.994
499.994
499.995
499.996
499.997
499.997
499.998
499.999
500
)
;

boundaryField
{
    movingWall
    {
        type            fixedValue;
        value           uniform 500;
    }
    fixedWalls
    {
        type            fixedValue;
        value           uniform 500;
    }
    frontAndBack
    {
        type            empty;
    }
}


// ************************************************************************* //
