/*--------------------------------*- C++ -*----------------------------------*\
| =========                 |                                                 |
| \\      /  F ield         | OpenFOAM: The Open Source CFD Toolbox           |
|  \\    /   O peration     | Version:  2212                                  |
|   \\  /    A nd           | Website:  www.openfoam.com                      |
|    \\/     M anipulation  |                                                 |
\*---------------------------------------------------------------------------*/
FoamFile
{
    version     2.0;
    format      ascii;
    arch        "LSB;label=32;scalar=64";
    class       volScalarField;
    location    "0.1";
    object      S;
}
// * * * * * * * * * * * * * * * * * * * * * * * * * * * * * * * * * * * * * //

dimensions      [0 0 0 1 0 0 0];

internalField   nonuniform List<scalar> 
400
(
499.843
499.53
499.227
498.946
498.692
498.476
498.3
498.17
498.088
498.055
498.069
498.13
498.235
498.38
498.561
498.775
499.016
499.278
499.558
499.85
499.529
498.598
497.696
496.86
496.108
495.465
494.945
494.562
494.32
494.224
494.271
494.455
494.769
495.202
495.742
496.377
497.09
497.869
498.696
499.557
499.219
497.681
496.195
494.818
493.584
492.531
491.683
491.061
490.674
490.525
490.611
490.922
491.444
492.16
493.049
494.09
495.259
496.532
497.882
499.282
498.925
496.808
494.767
492.878
491.19
489.754
488.604
487.766
487.254
487.069
487.204
487.645
488.372
489.358
490.575
491.994
493.583
495.308
497.139
499.031
498.649
495.991
493.434
491.072
488.968
487.185
485.768
484.745
484.132
483.93
484.128
484.703
485.627
486.868
488.387
490.149
492.112
494.237
496.489
498.811
498.399
495.252
492.229
489.443
486.97
484.885
483.241
482.07
481.389
481.193
481.466
482.177
483.29
484.763
486.55
488.606
490.888
493.348
495.95
498.63
498.18
494.603
491.175
488.021
485.233
482.899
481.075
479.798
479.081
478.917
479.278
480.127
481.418
483.096
485.111
487.41
489.945
492.666
495.537
498.491
497.996
494.059
490.292
486.836
483.797
481.27
479.318
477.979
477.262
477.152
477.614
478.599
480.05
481.905
484.102
486.586
489.304
492.207
495.26
498.398
497.852
493.632
489.601
485.915
482.691
480.034
478.01
476.654
475.97
475.934
476.503
477.617
479.208
481.205
483.538
486.146
488.975
491.977
495.123
498.353
497.75
493.333
489.12
485.282
481.947
479.226
477.184
475.853
475.231
475.284
475.96
477.189
478.894
480.994
483.414
486.084
488.953
491.974
495.125
498.353
497.695
493.17
488.865
484.959
481.591
478.873
476.868
475.602
475.062
475.21
475.982
477.304
479.089
481.25
483.704
486.378
489.22
492.184
495.257
498.398
497.689
493.155
488.852
484.969
481.65
479.004
477.088
475.918
475.473
475.709
476.557
477.936
479.759
481.933
484.369
486.992
489.745
492.584
495.507
498.483
497.737
493.297
489.098
485.335
482.151
479.645
477.865
476.814
476.466
476.771
477.66
479.054
480.863
482.996
485.362
487.88
490.489
493.148
495.858
498.602
497.84
493.607
489.621
486.081
483.119
480.821
479.217
478.301
478.039
478.383
479.268
480.621
482.357
484.39
486.629
488.991
491.411
493.842
496.29
498.749
498.003
494.094
490.44
487.23
484.581
482.552
481.156
480.378
480.185
480.529
481.358
482.607
484.206
486.074
488.126
490.281
492.467
494.635
496.783
498.917
498.229
494.771
491.572
488.802
486.548
484.84
483.675
483.033
482.883
483.189
483.908
484.993
486.386
488.02
489.823
491.714
493.625
495.495
497.317
499.099
498.52
495.646
493.028
490.799
489.007
487.657
486.736
486.224
486.097
486.332
486.899
487.767
488.893
490.228
491.712
493.281
494.866
496.406
497.881
499.292
498.879
496.72
494.797
493.183
491.893
490.918
490.244
489.858
489.746
489.895
490.287
490.904
491.718
492.698
493.802
494.981
496.183
497.35
498.456
499.487
499.301
497.97
496.814
495.851
495.076
494.483
494.065
493.815
493.729
493.799
494.019
494.378
494.862
495.453
496.128
496.859
497.613
498.352
499.052
499.689
499.767
499.324
498.94
498.617
498.355
498.153
498.007
497.918
497.883
497.901
497.97
498.085
498.244
498.44
498.666
498.912
499.169
499.423
499.669
499.892
)
;

boundaryField
{
    movingWall
    {
        type            fixedValue;
        value           uniform 500;
    }
    fixedWalls
    {
        type            fixedValue;
        value           uniform 500;
    }
    frontAndBack
    {
        type            empty;
    }
}


// ************************************************************************* //
